[Molden Format]
made by pyscf v[2.0.1]
[Atoms] (AU)
Be   1   4     0.00000000000000     0.00000000000000     0.00000000000000
H   2   1     0.00000000000000     0.00000000000000    -4.51644543771050
H   3   1     0.00000000000000     0.00000000000000     4.51644543771050
[GTO]
1 0
 s    3 1.00
             30.167871    0.15432897000252
             5.4951153    0.53532814000875
             1.4871927    0.44463454000726
 s    3 1.00
             1.3148331  -0.099967231525352
             0.3055389    0.39951283609597
             0.0993707    0.70011548068272
 p    3 1.00
             1.3148331    0.15591627764492
             0.3055389     0.6076837497961
             0.0993707    0.39195740921855

2 0
 s    3 1.00
            3.42525091    0.15432897070298
            0.62391373    0.53532814243847
             0.1688554    0.44463454202535

3 0
 s    3 1.00
            3.42525091    0.15432897070298
            0.62391373    0.53532814243847
             0.1688554    0.44463454202535

[5d]
[7f]
[9g]

[MO]
 Sym= A
 Ene=               0
 Spin= Alpha
 Occup=    1.00000
   1      0.99246251583611
   2     0.027803974596509
   3    -1.5080259012183e-18
   4    -3.9422884591712e-33
   5    4.8789097761848e-19
   6    -0.0021772999624864
   7    -0.0021772999624864
 Sym= A
 Ene=               1
 Spin= Alpha
 Occup=    1.00000
   1     -0.22199891470709
   2      0.75824183248184
   3    -5.2277184182345e-17
   4    -2.572250314132e-31
   5    -1.3183898417424e-15
   6      0.38605304960249
   7      0.38605304960249
 Sym= A
 Ene=               2
 Spin= Alpha
 Occup=    1.00000
   1    -6.6691241828957e-16
   2    2.2675786806011e-15
   3    -6.3081662564747e-17
   4    1.1102230246252e-16
   5      0.47630870842853
   6     -0.53171871568939
   7      0.53171871568939
 Sym= A
 Ene=               3
 Spin= Alpha
 Occup=    0.00000
   1     -0.20063174867451
   2      0.73779796656163
   3    -3.926569026099e-17
   4    -1.0972904727212e-30
   5    -8.8817841970013e-16
   6     -0.61089705048695
   7     -0.61089705048695
 Sym= A
 Ene=               4
 Spin= Alpha
 Occup=    0.00000
   1    2.8048856448232e-18
   2    -1.0692707166392e-17
   3      0.84297485448319
   4     -0.53795296700459
   5    -3.5875434025576e-16
   6    -3.1010449536012e-18
   7    2.3152035622806e-16
 Sym= A
 Ene=               5
 Spin= Alpha
 Occup=    0.00000
   1     1.19696559603e-18
   2    1.3316183987354e-19
   3      0.53795296700459
   4      0.84297485448319
   5    1.6882982505036e-16
   6    -1.7203657326365e-16
   7    1.173581119707e-16
 Sym= A
 Ene=               6
 Spin= Alpha
 Occup=    0.00000
   1    -1.6622243849913e-16
   2    6.1830974341461e-16
   3     3.04361721616e-16
   4    -7.7715611723761e-16
   5      0.93007126210469
   6       0.5131669450836
   7      -0.5131669450836
