[Molden Format]
made by pyscf v[2.0.1]
[Atoms] (AU)
H   1   1     0.00000000000000     0.00000000000000     0.00000000000000
H   2   1     0.00000000000000     0.00000000000000     1.88972612456506
H   3   1     0.00000000000000     1.88972612456506     0.00000000000000
H   4   1     0.00000000000000     1.88972612456506     1.88972612456506
[GTO]
1 0
 s    3 1.00
            3.42525091    0.15432897070298
            0.62391373    0.53532814243847
             0.1688554    0.44463454202535

2 0
 s    3 1.00
            3.42525091    0.15432897070298
            0.62391373    0.53532814243847
             0.1688554    0.44463454202535

3 0
 s    3 1.00
            3.42525091    0.15432897070298
            0.62391373    0.53532814243847
             0.1688554    0.44463454202535

4 0
 s    3 1.00
            3.42525091    0.15432897070298
            0.62391373    0.53532814243847
             0.1688554    0.44463454202535

[5d]
[7f]
[9g]

[MO]
 Sym= A
 Ene=               0
 Spin= Alpha
 Occup=    1.00000
   1      0.31525645897736
   2       0.3464972512337
   3       0.3464972512337
   4      0.31525645897736
 Sym= A
 Ene=               1
 Spin= Alpha
 Occup=    1.00000
   1     -0.83912316473659
   2    -1.0314320640416e-07
   3    1.0314320651758e-07
   4      0.83912316473659
 Sym= A
 Ene=               2
 Spin= Alpha
 Occup=    0.00000
   1    -1.0314320758598e-07
   2      0.83912316473659
   3     -0.83912316473659
   4    1.0314320545784e-07
 Sym= A
 Ene=               3
 Spin= Alpha
 Occup=    0.00000
   1      0.92307519739884
   2     -0.91180815409127
   3     -0.91180815409127
   4      0.92307519739883
